# vtk DataFile Version 3.0
Generated by MFEM
ASCII
DATASET UNSTRUCTURED_GRID
POINTS 356 double
0 0 0
0.166667 0 0
0.333333 0 0
0.5 0 0
0.666667 0 0
0.833333 0 0
1 0 0
1 0.166667 0
1 0.333333 0
1 0.5 0
1 0.666667 0
1 0.833333 0
1 1 0
0.833333 1 0
0.666667 1 0
0.5 1 0
0.333333 1 0
0.166667 1 0
0 1 0
0 0.833333 0
0 0.666667 0
0 0.5 0
0 0.333333 0
0 0.166667 0
0.5 0.3 0
0.551762 0.30682 0
0.599999 0.326797 0
0.641421 0.358579 0
0.673203 0.400001 0
0.69318 0.448238 0
0.7 0.5 0
0.69318 0.551762 0
0.673203 0.599999 0
0.641421 0.641421 0
0.599999 0.673203 0
0.551762 0.69318 0
0.5 0.7 0
0.448238 0.69318 0
0.400001 0.673203 0
0.358579 0.641421 0
0.326797 0.599999 0
0.30682 0.551762 0
0.3 0.5 0
0.30682 0.448238 0
0.326797 0.400001 0
0.358579 0.358579 0
0.400001 0.326797 0
0.448238 0.30682 0
0.283142 0.154544 0
0.548789 0.124376 0
0.882118 0.254739 0
0.88527 0.419089 0
0.905416 0.560804 0
0.87936 0.769308 0
0.564817 0.872114 0
0.210856 0.860529 0
0.125091 0.556112 0
0.135714 0.225357 0
0.545741 0.231738 0
0.599544 0.272346 0
0.662018 0.29451 0
0.718425 0.342211 0
0.740156 0.411268 0
0.790723 0.466083 0
0.748159 0.531285 0
0.736961 0.597282 0
0.706584 0.656478 0
0.665854 0.701875 0
0.590107 0.748713 0
0.526686 0.785233 0
0.469252 0.748535 0
0.389672 0.747415 0
0.334277 0.71235 0
0.297269 0.652318 0
0.25415 0.599907 0
0.236733 0.531735 0
0.226416 0.469983 0
0.257327 0.400931 0
0.301712 0.345846 0
0.34691 0.265652 0
0.404021 0.259955 0
0.470887 0.213543 0
0.404451 0.143931 0
0.736593 0.129724 0
0.73378 0.871678 0
0.439854 0.91127 0
0.119158 0.725777 0
0.122736 0.408188 0
0.630612 0.205633 0
0.742273 0.256969 0
0.810191 0.374898 0
0.800441 0.665571 0
0.736116 0.728836 0
0.657185 0.784094 0
0.313848 0.806475 0
0.255276 0.734376 0
0.209253 0.65763 0
0.204509 0.331601 0
0.439847 0.8159 0
0.797924 0.549556 0
0.26324 0.262243 0
0.0927216 0.0849488 0
0 0.0833335 0
0.0833335 0 0
0.227725 0.0813443 0
0.25 0 0
0.315417 0.0729204 0
0.6095 0.0593516 0
0.515396 0.0699098 0
0.583333 0 0
0.91465 0.0872193 0
0.916667 0 0
1 0.0833335 0
1 0.25 0
0.937818 0.29361 0
0.938729 0.202295 0
1 0.416666 0
0.947728 0.466225 0
0.940856 0.377137 0
1 0.583333 0
0.942444 0.606075 0
0.950136 0.528514 0
1 0.75 0
0.929712 0.808365 0
0.934912 0.722676 0
0.910161 0.922993 0
1 0.916667 0
0.916667 1 0
0.853346 0.890832 0
0.587515 0.160995 0
0.591219 0.218601 0
0.54936 0.183779 0
0.793416 0.51164 0
0.776406 0.539662 0
0.762998 0.498303 0
0.583333 1 0
0.529318 0.931324 0
0.610391 0.943193 0
0.28139 0.93946 0
0.25 1 0
0.182178 0.924603 0
0.0778147 0.918672 0
0.0833335 1 0
0 0.916667 0
0.104465 0.839548 0
0.847056 0.61038 0
0.803113 0.606055 0
0.846008 0.553428 0
0.48125 0.800349 0
0.451797 0.788102 0
0.501563 0.76676 0
0 0.583333 0
0.0683646 0.529772 0
0.0639236 0.619005 0
0 0.25 0
0.0557862 0.192482 0
0.0682914 0.282634 0
0.520982 0.268534 0
0.551582 0.272654 0
0.525881 0.30341 0
0.57653 0.291394 0
0.600077 0.297058 0
0.575881 0.316808 0
0.648497 0.326033 0
0.62071 0.342688 0
0.626526 0.309748 0
0.677152 0.34933 0
0.695451 0.373464 0
0.657312 0.37929 0
0.703248 0.404618 0
0.718408 0.433718 0
0.683191 0.424119 0
0.739512 0.45871 0
0.746835 0.485511 0
0.69659 0.474119 0
0.721715 0.544523 0
0.69659 0.525881 0
0.721022 0.514387 0
0.708116 0.597229 0
0.683191 0.575881 0
0.714089 0.572341 0
0.689142 0.632247 0
0.673635 0.651712 0
0.657312 0.62071 0
0.62808 0.690906 0
0.62071 0.657312 0
0.649719 0.676246 0
0.596269 0.710171 0
0.567658 0.718002 0
0.575881 0.683191 0
0.544365 0.738502 0
0.518598 0.743874 0
0.525881 0.69659 0
0.461919 0.722708 0
0.474119 0.69659 0
0.483042 0.72282 0
0.420408 0.718144 0
0.393297 0.71258 0
0.424119 0.683191 0
0.369154 0.694195 0
0.345985 0.671497 0
0.37929 0.657312 0
0.324537 0.648867 0
0.308268 0.629648 0
0.342688 0.62071 0
0.292927 0.60032 0
0.284541 0.577803 0
0.316808 0.575881 0
0.274578 0.544455 0
0.270829 0.512407 0
0.30341 0.525881 0
0.263108 0.455706 0
0.30341 0.474119 0
0.263056 0.481756 0
0.29064 0.40202 0
0.316808 0.424119 0
0.282607 0.424048 0
0.313695 0.373043 0
0.32704 0.347998 0
0.342688 0.37929 0
0.353066 0.310627 0
0.370023 0.2985 0
0.37929 0.342688 0
0.40002 0.288527 0
0.422101 0.28078 0
0.424119 0.316808 0
0.459821 0.2573 0
0.489815 0.257346 0
0.474119 0.30341 0
0.852688 0.11825 0
0.374425 0.0710588 0
0.33578 0.14973 0
0.459512 0.0625299 0
0.416666 0 0
0.75 0 0
0.785713 0.0683812 0
0.706647 0.0671846 0
0.878125 0.332635 0
0.886596 0.481136 0
0.891795 0.664984 0
0.75 1 0
0.701422 0.935849 0
0.778266 0.942172 0
0.810343 0.823939 0
0.648895 0.872004 0
0.468913 0.95439 0
0.498105 0.886349 0
0.332012 0.877 0
0.379936 0.94902 0
0.416666 1 0
0.512091 0.224018 0
0 0.75 0
0.061206 0.691982 0
0.0598641 0.790245 0
0.159023 0.796817 0
0.125497 0.646262 0
0.0647223 0.462963 0
0.128052 0.491845 0
0 0.416666 0
0.0547752 0.375485 0
0.574639 0.250234 0
0.62874 0.283452 0
0.685483 0.317065 0
0.728548 0.375963 0
0.762144 0.434634 0
0.741667 0.561505 0
0.718472 0.623603 0
0.68151 0.68357 0
0.628362 0.728456 0
0.559982 0.762864 0
0.433468 0.747366 0
0.362384 0.724067 0
0.316851 0.682061 0
0.271443 0.624027 0
0.24559 0.56705 0
0.225235 0.496947 0
0.239178 0.436564 0
0.277986 0.367819 0
0.325654 0.301259 0
0.376116 0.264652 0
0.434079 0.234202 0
0.151321 0.119404 0
0.641362 0.122784 0
0.477795 0.1365 0
0.805407 0.189145 0
0.510948 0.173903 0
0.437279 0.172937 0
0.377428 0.204163 0
0.309067 0.211444 0
0.83767 0.510332 0
0.8382 0.438917 0
0.168064 0.445468 0
0.175381 0.513904 0
0.121991 0.324341 0
0.208731 0.183498 0
0.47751 0.843272 0
0.552142 0.829151 0
0.640585 0.24325 0
0.611517 0.233073 0
0.703559 0.274751 0
0.732681 0.299405 0
0.685001 0.231157 0
0.759601 0.35739 0
0.773108 0.395467 0
0.750827 0.66177 0
0.773641 0.626576 0
0.719944 0.696449 0
0.700546 0.715291 0
0.767877 0.692398 0
0.659953 0.741646 0
0.622201 0.766346 0
0.325108 0.760716 0
0.349038 0.778374 0
0.270538 0.696927 0
0.291444 0.724168 0
0.284487 0.770535 0
0.255772 0.654624 0
0.237261 0.630687 0
0.251616 0.344949 0
0.226821 0.365688 0
0.807833 0.251665 0
0.737883 0.187607 0
0.837676 0.390673 0
0.845785 0.312587 0
0.795754 0.412196 0
0.173182 0.280202 0
0.167299 0.368434 0
0.261056 0.839321 0
0.382069 0.856431 0
0.17355 0.604894 0
0.165779 0.691056 0
0.438585 0.867228 0
0.372045 0.815471 0
0.40843 0.787472 0
0.766418 0.576888 0
0.402036 0.198591 0
0.184893 0.401808 0
0.781861 0.316403 0
0.690849 0.761681 0
0.580697 0.809953 0
0.232772 0.699149 0
0.286006 0.297108 0
0.303493 0.261212 0
0.617219 0.827293 0
0.231027 0.300261 0
0.277101 0.209609 0
0.196594 0.24964 0
0.703362 0.827699 0
0.189273 0.738437 0
0.741686 0.807258 0
0.81115 0.748675 0
0.196684 0.577051 0
0.229495 0.79535 0
0.832366 0.718126 0
0.181378 0.55124 0
0.684592 0.157692 0
CELLS 154 1078
6 1 23 0 101 102 103
6 48 1 2 104 105 106
6 4 49 3 107 108 109
6 7 5 6 110 111 112
6 7 8 50 113 114 115
6 8 9 51 116 117 118
6 9 10 52 119 120 121
6 10 11 53 122 123 124
6 13 11 12 125 126 127
6 11 13 53 125 128 123
6 49 88 58 129 130 131
6 63 99 64 132 133 134
6 14 15 54 135 136 137
6 55 16 17 138 139 140
6 19 17 18 141 142 143
6 17 19 55 141 144 140
6 52 91 99 145 146 147
6 69 98 70 148 149 150
6 20 21 56 151 152 153
6 22 23 57 154 155 156
6 24 58 25 157 158 159
6 25 59 26 160 161 162
6 60 27 26 163 164 165
6 27 61 28 166 167 168
6 28 62 29 169 170 171
6 29 63 30 172 173 174
6 64 31 30 175 176 177
6 65 32 31 178 179 180
6 32 66 33 181 182 183
6 67 34 33 184 185 186
6 34 68 35 187 188 189
6 35 69 36 190 191 192
6 70 37 36 193 194 195
6 37 71 38 196 197 198
6 38 72 39 199 200 201
6 39 73 40 202 203 204
6 40 74 41 205 206 207
6 41 75 42 208 209 210
6 76 43 42 211 212 213
6 77 44 43 214 215 216
6 44 78 45 217 218 219
6 45 79 46 220 221 222
6 46 80 47 223 224 225
6 47 81 24 226 227 228
6 50 5 7 229 110 115
6 48 2 82 106 230 231
6 3 82 2 232 230 233
6 4 5 83 234 235 236
6 51 50 8 237 114 118
6 51 9 52 117 121 238
6 53 52 10 239 120 124
6 13 14 84 240 241 242
6 53 13 84 128 242 243
6 54 84 14 244 241 137
6 54 15 85 136 245 246
6 55 85 16 247 248 138
6 15 16 85 249 248 245
6 24 81 58 227 250 157
6 19 20 86 251 252 253
6 55 19 86 144 253 254
6 56 86 20 255 252 153
6 21 87 56 256 257 152
6 21 22 87 258 259 256
6 25 58 59 158 260 160
6 60 26 59 165 161 261
6 60 61 27 262 166 163
6 61 62 28 263 169 167
6 63 29 62 172 170 264
6 30 63 64 173 134 177
6 64 65 31 265 180 175
6 65 66 32 266 181 178
6 67 33 66 186 182 267
6 67 68 34 268 187 184
6 69 35 68 190 188 269
6 36 69 70 191 150 195
6 70 71 37 270 196 193
6 72 38 71 199 197 271
6 39 72 73 200 272 202
6 74 40 73 205 203 273
6 75 41 74 208 206 274
6 76 42 75 213 209 275
6 43 76 77 211 276 216
6 44 77 78 214 277 217
6 79 45 78 220 218 278
6 46 79 80 221 279 223
6 81 47 80 226 224 280
6 23 1 57 101 281 155
6 83 49 4 282 107 236
6 82 3 49 232 108 283
6 5 50 83 229 284 235
6 82 49 81 283 285 286
6 82 79 48 287 288 231
6 52 63 51 289 290 238
6 56 87 76 257 291 292
6 57 87 22 293 259 156
6 57 1 48 281 104 294
6 85 69 54 295 296 246
6 88 60 59 297 261 298
6 60 89 61 299 300 262
6 88 89 60 301 299 297
6 61 90 62 302 303 263
6 91 66 65 304 266 305
6 66 92 67 306 307 267
6 66 91 92 304 308 306
6 68 67 93 268 309 310
6 94 72 71 311 271 312
6 95 73 72 313 272 314
6 72 94 95 311 315 314
6 73 96 74 316 317 273
6 97 78 77 318 277 319
6 83 50 89 284 320 321
6 50 51 90 237 322 323
6 51 63 90 290 324 322
6 87 57 97 293 325 326
6 85 55 94 247 327 328
6 90 63 62 324 264 303
6 86 56 96 255 329 330
6 58 88 59 130 298 260
6 69 85 98 295 331 148
6 98 94 71 332 312 333
6 99 91 65 146 305 334
6 80 82 81 335 286 280
6 87 77 76 336 276 291
6 89 90 61 337 302 300
6 99 65 64 334 265 133
6 92 93 67 338 309 307
6 68 54 69 339 296 269
6 98 71 70 333 270 149
6 73 95 96 313 340 316
6 78 100 79 341 342 278
6 50 90 89 323 337 320
6 54 68 93 339 310 343
6 97 100 78 344 341 318
6 81 49 58 285 131 250
6 48 79 100 288 342 345
6 57 100 97 346 344 325
6 84 54 93 244 343 347
6 57 48 100 294 345 346
6 85 94 98 328 332 331
6 95 86 96 348 330 340
6 92 84 93 349 347 338
6 53 84 92 243 349 350
6 56 74 96 351 317 329
6 55 95 94 352 315 327
6 55 86 95 254 348 352
6 63 52 99 289 147 132
6 52 53 91 239 353 145
6 74 56 75 351 354 274
6 53 92 91 350 308 353
6 49 83 88 282 355 129
6 83 89 88 321 301 355
6 77 87 97 336 326 319
6 79 82 80 287 335 279
6 56 76 75 292 275 354
CELL_TYPES 154
22
22
22
22
22
22
22
22
22
22
22
22
22
22
22
22
22
22
22
22
22
22
22
22
22
22
22
22
22
22
22
22
22
22
22
22
22
22
22
22
22
22
22
22
22
22
22
22
22
22
22
22
22
22
22
22
22
22
22
22
22
22
22
22
22
22
22
22
22
22
22
22
22
22
22
22
22
22
22
22
22
22
22
22
22
22
22
22
22
22
22
22
22
22
22
22
22
22
22
22
22
22
22
22
22
22
22
22
22
22
22
22
22
22
22
22
22
22
22
22
22
22
22
22
22
22
22
22
22
22
22
22
22
22
22
22
22
22
22
22
22
22
22
22
22
22
22
22
22
22
22
22
22
22
CELL_DATA 154
SCALARS material int
LOOKUP_TABLE default
1
1
1
1
1
1
1
1
1
1
1
1
1
1
1
1
1
1
1
1
1
1
1
1
1
1
1
1
1
1
1
1
1
1
1
1
1
1
1
1
1
1
1
1
1
1
1
1
1
1
1
1
1
1
1
1
1
1
1
1
1
1
1
1
1
1
1
1
1
1
1
1
1
1
1
1
1
1
1
1
1
1
1
1
1
1
1
1
1
1
1
1
1
1
1
1
1
1
1
1
1
1
1
1
1
1
1
1
1
1
1
1
1
1
1
1
1
1
1
1
1
1
1
1
1
1
1
1
1
1
1
1
1
1
1
1
1
1
1
1
1
1
1
1
1
1
1
1
1
1
1
1
1
1
