# vtk DataFile Version 3.0
Generated by MFEM
ASCII
DATASET UNSTRUCTURED_GRID
POINTS 36 double
0 0 0
1 0 0
2 0 0
3 0 0
4 0 0
5 0 0
6 0 0
7 0 0
8 0 0
0 1 0
1 1 0
2 1 0
3 1 0
4 1 0
5 1 0
6 1 0
7 1 0
8 1 0
0 0 1
1 0 1
2 0 1
3 0 1
4 0 1
5 0 1
6 0 1
7 0 1
8 0 1
0 1 1
1 1 1
2 1 1
3 1 1
4 1 1
5 1 1
6 1 1
7 1 1
8 1 1
CELLS 8 72
8 0 1 10 9 18 19 28 27
8 1 2 11 10 19 20 29 28
8 2 3 12 11 20 21 30 29
8 3 4 13 12 21 22 31 30
8 4 5 14 13 22 23 32 31
8 5 6 15 14 23 24 33 32
8 6 7 16 15 24 25 34 33
8 7 8 17 16 25 26 35 34
CELL_TYPES 8
12
12
12
12
12
12
12
12
CELL_DATA 8
SCALARS material int
LOOKUP_TABLE default
1
1
1
1
2
2
2
2
