# vtk DataFile Version 3.0
Generated by MFEM
ASCII
DATASET UNSTRUCTURED_GRID
POINTS 36 double
0 0 0
1 0 0
2 0 0
3 0 0
4 0 0
5 0 0
6 0 0
7 0 0
8 0 0
0 1 0
1 1 0
2 1 0
3 1 0
4 1 0
5 1 0
6 1 0
7 1 0
8 1 0
0 0 1
1 0 1
2 0 1
3 0 1
4 0 1
5 0 1
6 0 1
7 0 1
8 0 1
0 1 1
1 1 1
2 1 1
3 1 1
4 1 1
5 1 1
6 1 1
7 1 1
8 1 1
CELLS 48 240
4 0 18 19 28
4 1 0 19 28
4 0 1 10 28
4 0 18 28 27
4 9 0 28 27
4 0 10 9 28
4 1 19 20 29
4 2 1 20 29
4 1 2 11 29
4 1 19 29 28
4 10 1 29 28
4 1 11 10 29
4 2 20 21 30
4 3 2 21 30
4 2 3 12 30
4 2 20 30 29
4 11 2 30 29
4 2 12 11 30
4 3 21 22 31
4 4 3 22 31
4 3 4 13 31
4 3 21 31 30
4 12 3 31 30
4 3 13 12 31
4 4 22 23 32
4 5 4 23 32
4 4 5 14 32
4 4 22 32 31
4 13 4 32 31
4 4 14 13 32
4 5 23 24 33
4 6 5 24 33
4 5 6 15 33
4 5 23 33 32
4 14 5 33 32
4 5 15 14 33
4 6 24 25 34
4 7 6 25 34
4 6 7 16 34
4 6 24 34 33
4 15 6 34 33
4 6 16 15 34
4 7 25 26 35
4 8 7 26 35
4 7 8 17 35
4 7 25 35 34
4 16 7 35 34
4 7 17 16 35
CELL_TYPES 48
10
10
10
10
10
10
10
10
10
10
10
10
10
10
10
10
10
10
10
10
10
10
10
10
10
10
10
10
10
10
10
10
10
10
10
10
10
10
10
10
10
10
10
10
10
10
10
10
CELL_DATA 48
SCALARS material int
LOOKUP_TABLE default
1
1
1
1
1
1
1
1
1
1
1
1
1
1
1
1
1
1
1
1
1
1
1
1
2
2
2
2
2
2
2
2
2
2
2
2
2
2
2
2
2
2
2
2
2
2
2
2
