# vtk DataFile Version 3.0
Generated by MFEM
ASCII
DATASET UNSTRUCTURED_GRID
POINTS 117 double
-0.760829 0.0588346 -0.557402
-0.815218 -0.815047 0.0385256
-1.66544 -0.0476612 -0.0483124
-0.800961 0.0308944 0.526571
-0.839706 0.873182 -0.0582038
-0.807181 -0.835261 -1.18098
0.0104972 0.041759 -1.10701
-0.0366123 -0.776244 -0.566654
-0.00727995 -0.864761 0.579576
0.006645 0.0165312 1.1991
-0.824793 -0.817076 1.1586
-0.819801 0.824317 -1.2242
-0.0211731 0.805347 -0.570567
-0.0352077 0.756369 0.549771
-0.884674 0.918393 1.24212
0.839928 -0.767126 0.01832
0.024138 -1.72164 -0.0395452
-0.0404726 1.75188 -0.0560313
0.809725 0.815742 -0.0579788
0.863387 -0.798005 -1.20706
0.803029 0.0217941 -0.561452
0.836421 0.0586046 0.603587
0.7921 -0.861501 1.22465
0.874337 0.912571 -1.25257
0.797709 0.809662 1.19134
1.667 -0.0427693 0.0176146
0.056823 0.0459792 -0.0337011
0.434913 0.402102 0.584988
0.355216 0.348799 -0.0127168
-0.364828 0.380951 -0.0467247
-0.393384 0.440786 -0.562292
-0.0616594 0.880177 -0.0570638
-0.854753 0.874146 -0.545238
-0.418851 0.866999 -0.256285
-0.798325 0.438528 -0.332223
-0.404239 0.866317 -0.827647
-0.866131 0.429589 -0.89953
-0.852123 0.007743 -0.0601472
0.0491733 0.00679464 0.585938
-0.381889 0.427431 0.636182
-0.390018 -0.467517 -1.13035
-0.822251 -0.449882 -0.863936
-0.43248 -0.777095 -0.915554
-0.458402 0.0131247 -0.874989
0.0410868 -0.426959 -0.802399
-0.381003 -0.352784 -0.629689
-0.370676 -0.410048 -0.0549384
0.408504 -0.378463 0.53824
-0.356051 -0.371881 0.534839
-0.0334942 0.0617411 -0.625972
0.762853 0.0186508 0.024047
0.382683 0.402115 -0.539668
0.46043 1.3186 0.0431132
-0.0496363 1.20518 0.266029
0.0614858 1.24837 -0.230447
0.469819 0.766423 0.252148
0.386979 0.785011 -0.229271
0.448823 -0.448272 -0.0344415
0.432189 -0.400174 -0.541944
-0.418255 0.789856 0.271067
0.427949 -0.00302677 -0.882897
-0.0254903 0.384566 -0.879856
0.418764 0.398307 -1.19097
0.768561 0.396642 -0.91741
0.455359 0.796043 -0.93867
-0.889626 -0.897627 0.613613
-0.386653 -0.87883 0.261497
-0.754655 -0.378276 0.299545
-0.451884 -0.82352 0.906555
-0.827936 -0.417338 0.938637
-0.401754 0.410772 -1.17473
-0.481698 -0.3903 1.17903
-0.0458223 -0.358075 0.874346
-0.454599 -0.0235408 0.912462
0.793791 0.818001 0.658603
0.876057 0.375416 0.296327
0.472834 0.801294 0.95169
0.898585 0.474043 0.956903
-0.820977 -0.347001 -0.255837
0.0330922 -0.876796 -0.0484137
0.372662 -0.772686 -0.338132
0.822668 -0.392645 0.281265
0.35148 -0.818634 0.342238
0.784027 -0.798007 0.661323
0.4492 -0.808164 0.927492
0.77154 -0.374977 0.938808
-1.31431 -0.357031 -0.0453402
-1.32611 0.060182 0.319515
-1.21611 -0.0559456 -0.34306
1.29834 -0.414866 0.0572244
0.807437 -0.440683 -0.340599
1.25989 0.00708236 -0.294273
1.20598 0.0351619 0.26553
-0.785357 0.839332 0.604997
-0.817412 0.450553 0.322458
-0.794406 0.489099 0.887567
-0.365997 0.842441 0.838199
0.364634 0.0442669 0.808335
0.872261 0.862038 -0.661958
0.786042 0.362346 -0.261792
0.454281 0.414751 1.23411
-0.00377456 0.35549 0.878362
-1.28148 0.463216 -0.0397493
0.455186 -1.28706 -0.00377074
0.0145766 -1.27329 0.282995
0.00479858 -1.28871 -0.338908
-0.792529 -0.828351 -0.664986
-0.413184 -0.796577 -0.3001
0.837242 -0.880808 -0.654037
0.805911 -0.423237 -0.853738
0.38917 -0.809991 -0.887035
-0.376068 1.32594 -0.0358273
0.470152 -0.473327 -1.21618
-0.45578 0.38261 1.17384
-0.360495 -1.2255 -0.0435913
0.426864 -0.380755 1.24643
1.23459 0.34974 -0.0254092
CELLS 42 462
10 21 0 13 12 26 29 27 28 30 31
10 4 11 12 0 32 35 33 34 36 30
10 0 21 13 3 26 27 29 37 38 39
10 5 6 0 7 40 43 41 42 44 45
10 0 21 3 8 26 38 37 46 47 48
10 0 21 20 12 26 50 49 30 28 51
10 17 18 13 12 52 55 53 54 56 31
10 21 0 20 7 26 49 50 57 45 58
10 0 13 12 4 29 31 30 34 59 33
10 20 0 12 6 49 30 51 60 43 61
10 23 6 20 12 62 60 63 64 61 51
10 1 10 8 3 65 68 66 67 69 48
10 11 6 12 0 70 61 35 36 43 30
10 10 9 8 3 71 72 68 69 73 48
10 18 24 13 21 74 76 55 75 77 27
10 0 8 3 1 46 48 37 78 66 67
10 21 0 7 8 26 45 57 47 46 79
10 7 21 8 15 57 47 79 80 81 82
10 22 15 8 21 83 82 84 85 81 47
10 1 2 3 0 86 87 67 78 88 37
10 15 25 20 21 89 91 90 81 92 50
10 4 14 3 13 93 95 94 59 96 39
10 21 3 8 9 38 48 47 97 73 72
10 18 23 20 12 98 63 99 56 64 51
10 21 7 20 15 57 58 50 81 80 90
10 24 9 13 21 100 101 76 77 97 27
10 12 21 20 18 28 50 51 56 75 99
10 2 4 3 0 102 94 87 88 34 37
10 15 16 8 7 103 104 82 80 105 79
10 1 5 0 7 106 41 78 107 42 45
10 19 15 20 7 108 90 109 110 80 58
10 4 17 13 12 111 53 59 33 54 31
10 21 12 13 18 28 31 27 75 56 55
10 3 21 13 9 38 27 39 73 97 101
10 8 0 7 1 46 45 79 66 78 107
10 6 19 20 7 112 109 60 44 110 58
10 9 14 13 3 113 96 101 73 95 39
10 16 1 8 7 114 66 104 105 107 79
10 0 20 7 6 49 58 45 43 60 44
10 13 0 3 4 29 37 39 59 34 94
10 9 22 8 21 115 84 72 97 85 47
10 25 18 20 21 116 99 91 92 75 50
CELL_TYPES 42
24
24
24
24
24
24
24
24
24
24
24
24
24
24
24
24
24
24
24
24
24
24
24
24
24
24
24
24
24
24
24
24
24
24
24
24
24
24
24
24
24
24
CELL_DATA 42
SCALARS material int
LOOKUP_TABLE default
1
1
1
1
1
1
1
1
1
1
1
1
1
1
1
1
1
1
1
1
1
1
1
1
1
1
1
1
1
1
1
1
1
1
1
1
1
1
1
1
1
1
