# vtk DataFile Version 3.0
Generated by MFEM
ASCII
DATASET UNSTRUCTURED_GRID
POINTS 26 double
-0.816497 0 -0.57735
-0.816497 -0.816497 0
-1.705385 0 0
-0.816497 0 0.57735
-0.816497 0.816497 0
-0.852693 -0.852693 -1.20589
0 0 -1.154701
0 -0.816497 -0.57735
0 -0.816497 0.57735
0 0 1.154701
-0.852693 -0.852693 1.20589
-0.852693 0.852693 -1.20589
0 0.816497 -0.57735
0 0.816497 0.57735
-0.852693 0.852693 1.20589
0.816497 -0.816497 0
0 -1.705385 0
0 1.705385 0
0.816497 0.816497 0
0.852693 -0.852693 -1.20589
0.816497 0 -0.57735
0.816497 0 0.57735
0.852693 -0.852693 1.20589
0.852693 0.852693 -1.20589
0.852693 0.852693 1.20589
1.705385 0 0
CELLS 42 210
4 13 21 0 12
4 11 12 4 0
4 21 3 13 0
4 6 7 0 5
4 21 3 0 8
4 21 20 0 12
4 17 18 13 12
4 7 21 20 0
4 12 13 4 0
4 6 20 12 0
4 6 20 23 12
4 10 3 8 1
4 11 6 12 0
4 3 10 8 9
4 21 18 13 24
4 3 1 0 8
4 7 21 0 8
4 7 21 8 15
4 21 22 8 15
4 2 3 1 0
4 25 21 20 15
4 14 3 4 13
4 21 3 8 9
4 20 18 23 12
4 7 21 15 20
4 13 21 24 9
4 18 21 12 20
4 3 2 4 0
4 16 7 8 15
4 5 7 0 1
4 20 7 19 15
4 17 13 4 12
4 21 18 12 13
4 21 3 9 13
4 1 7 0 8
4 7 6 20 19
4 14 3 13 9
4 7 16 8 1
4 6 7 20 0
4 13 3 4 0
4 22 21 8 9
4 25 18 20 21
CELL_TYPES 42
10
10
10
10
10
10
10
10
10
10
10
10
10
10
10
10
10
10
10
10
10
10
10
10
10
10
10
10
10
10
10
10
10
10
10
10
10
10
10
10
10
10
CELL_DATA 42
SCALARS material int
LOOKUP_TABLE default
1
1
1
1
1
1
1
1
1
1
1
1
1
1
1
1
1
1
1
1
1
1
1
1
1
1
1
1
1
1
1
1
1
1
1
1
1
1
1
1
1
1
