# vtk DataFile Version 3.0
Generated by MFEM
ASCII
DATASET UNSTRUCTURED_GRID
POINTS 26 double
0 -1 -1
1 -1 -1
-1 0 -1
0 0 -1
1 0 -1
-1 1 -1
0 1 -1
1 1 -1
-1 -1 0
0 -1 0
1 -1 0
-1 0 0
0 0 0
1 0 0
-1 1 0
0 1 0
1 1 0
-1 -1 1
0 -1 1
1 -1 1
-1 0 1
0 0 1
1 0 1
-1 1 1
0 1 1
1 1 1
CELLS 7 63
8 0 1 4 3 9 10 13 12
8 3 4 7 6 12 13 16 15
8 2 3 6 5 11 12 15 14
8 8 9 12 11 17 18 21 20
8 9 10 13 12 18 19 22 21
8 12 13 16 15 21 22 25 24
8 11 12 15 14 20 21 24 23
CELL_TYPES 7
12
12
12
12
12
12
12
CELL_DATA 7
SCALARS material int
LOOKUP_TABLE default
1
1
1
1
1
1
1
