# vtk DataFile Version 3.0
Generated by MFEM
ASCII
DATASET UNSTRUCTURED_GRID
POINTS 18 double
0 0 0
1 0 0
2 0 0
3 0 0
4 0 0
5 0 0
6 0 0
7 0 0
8 0 0
0 1 0
1 1 0
2 1 0
3 1 0
4 1 0
5 1 0
6 1 0
7 1 0
8 1 0
CELLS 16 64
3 10 0 1
3 0 10 9
3 11 1 2
3 1 11 10
3 12 2 3
3 2 12 11
3 13 3 4
3 3 13 12
3 14 4 5
3 4 14 13
3 15 5 6
3 5 15 14
3 16 6 7
3 6 16 15
3 17 7 8
3 7 17 16
CELL_TYPES 16
5
5
5
5
5
5
5
5
5
5
5
5
5
5
5
5
CELL_DATA 16
SCALARS material int
LOOKUP_TABLE default
1
1
1
1
1
1
1
1
2
2
2
2
2
2
2
2
