# vtk DataFile Version 3.0
Generated by MFEM
ASCII
DATASET UNSTRUCTURED_GRID
POINTS 27 double
0 0 0
1 0 0
2 0 0
3 0 0
4 0 0
5 0 0
6 0 0
7 0 0
8 0 0
0 1 0
1 1 0
2 1 0
3 1 0
4 1 0
5 1 0
6 1 0
7 1 0
8 1 0
0 0.5 1
1 0.5 1
2 0.5 1
3 0.5 1
4 0.5 1
5 0.5 1
6 0.5 1
7 0.5 1
8 0.5 1
CELLS 8 56
6 0 18 9 1 19 10
6 1 19 10 2 20 11
6 2 20 11 3 21 12
6 3 21 12 4 22 13
6 4 22 13 5 23 14
6 5 23 14 6 24 15
6 6 24 15 7 25 16
6 7 25 16 8 26 17
CELL_TYPES 8
13
13
13
13
13
13
13
13
CELL_DATA 8
SCALARS material int
LOOKUP_TABLE default
1
1
1
1
2
2
2
2
