# vtk DataFile Version 3.0
Generated by MFEM
ASCII
DATASET UNSTRUCTURED_GRID
POINTS 27 double
0 0 0
1 0 0
2 0 0
3 0 0
4 0 0
5 0 0
6 0 0
7 0 0
8 0 0
0 1 0
1 1 0
2 1 0
3 1 0
4 1 0
5 1 0
6 1 0
7 1 0
8 1 0
0 0.5 1
1 0.5 1
2 0.5 1
3 0.5 1
4 0.5 1
5 0.5 1
6 0.5 1
7 0.5 1
8 0.5 1
CELLS 8 56
6 0 9 18 1 10 19
6 1 10 19 2 11 20
6 2 11 20 3 12 21
6 3 12 21 4 13 22
6 4 13 22 5 14 23
6 5 14 23 6 15 24
6 6 15 24 7 16 25
6 7 16 25 8 17 26
CELL_TYPES 8
13
13
13
13
13
13
13
13
CELL_DATA 8
SCALARS material int
LOOKUP_TABLE default
1
1
1
1
2
2
2
2
