# vtk DataFile Version 3.0
Generated by MFEM
ASCII
DATASET UNSTRUCTURED_GRID
POINTS 117 double
0.00628329 -1.03679 -1.03906
0.963257 -0.954447 -1.05749
-1.0248 -0.0249993 -1.02007
-0.0270451 0.0507721 -0.95698
0.976458 -0.0517551 -0.979414
-1.03322 1.02421 -1.0428
0.0373603 1.04021 -1.02689
1.05313 0.939173 -1.00282
-0.99363 -0.970901 -0.0212876
0.0334328 -1.02738 0.0149584
0.946167 -1.05201 0.0232333
-1.01254 0.0245686 -0.0117818
0.0104008 0.0433603 0.0190177
0.961519 0.0042067 -0.0226014
-1.00773 1.03617 0.0561498
-0.0442042 1.01669 0.0523461
1.01027 0.983272 0.0234471
-1.0331 -1.0269 1.01343
0.0361332 -1.04319 1.01907
0.966214 -1.04147 1.05601
-0.982013 0.0186122 1.00768
-0.035459 -0.0173093 1.04698
0.968524 0.0216241 1.04891
-1.02938 1.05369 0.982299
0.0388312 0.992715 1.04947
0.990383 0.98783 0.995261
0.54004 -1.01194 -0.97328
1.01734 -0.534261 -0.978948
0.512914 -0.0505374 -0.941607
0.0326975 -0.487539 -1.06051
0.440887 -0.961258 -0.0525756
0.956698 -0.524829 -0.0431664
0.558455 -0.00448644 -0.0554992
-0.0214104 -0.548757 -0.0101499
-0.00784735 -1.03656 -0.437646
0.972413 -0.993742 -0.472413
1.00787 0.0379572 -0.490449
-0.0329871 -0.0588457 -0.527035
0.963045 0.507931 -1.03773
0.451745 1.00456 -0.949236
-0.0620543 0.47627 -0.949577
0.971711 0.51842 0.0480009
0.501704 0.966625 -0.0235182
0.0108465 0.457131 0.00694111
0.99573 0.960127 -0.5371
0.0564777 0.940292 -0.529868
-0.470858 0.0363197 -1.00321
-0.556498 1.0059 -0.951153
-1.03913 0.475896 -0.953941
-0.497225 0.0556263 -0.0466438
-0.527783 1.02693 0.0423559
-0.95864 0.557008 -0.00876341
-0.970184 -0.024183 -0.562166
-0.996759 0.986052 -0.471239
-0.550521 -0.951799 0.0360357
-0.993852 -0.468968 0.0498041
-0.443876 -0.963618 0.961521
0.0520186 -0.526238 1.00026
-0.539011 0.0592706 1.00836
-0.993462 -0.451655 0.957414
-0.977784 -0.951278 0.502249
-0.0356244 -0.964487 0.51828
0.0257358 -0.0389845 0.476748
-0.981829 -0.018264 0.50925
0.505465 -0.950745 0.94563
0.955388 -0.513042 0.976601
0.553084 0.0504945 0.974337
0.95084 -0.975288 0.517681
0.984901 -0.00938734 0.512066
0.953629 0.495926 0.999105
0.465084 0.966769 1.00595
-0.0146529 0.529383 0.99999
0.98784 0.951846 0.484606
0.0292889 0.995894 0.544927
-0.441306 1.04901 0.944431
-0.95393 0.474473 1.01001
-0.976733 0.998686 0.452558
0.525336 -0.477166 -0.996282
0.552072 -0.957129 -0.503648
1.04664 -0.462918 -0.438883
0.465611 0.0159598 -0.480426
-0.0382111 -0.4927 -0.523792
0.5255 -0.46841 -0.010146
0.557928 0.554277 -0.980091
1.02753 0.555852 -0.557531
0.537479 1.01729 -0.53661
0.00157517 0.522809 -0.492787
0.521154 0.529734 -0.0335099
-0.473002 0.553553 -0.973854
-0.474936 0.0195791 -0.546931
-0.534808 1.01558 -0.513596
-1.01329 0.539775 -0.534105
-0.448061 0.492592 0.0338487
-0.446572 -0.460906 0.0256522
-0.557615 -1.04099 0.537646
-0.00509539 -0.520653 0.541979
-0.553684 -0.0364473 0.439754
-0.942031 -0.552994 0.449483
-0.491756 -0.558441 0.99716
0.493718 -0.983335 0.51432
0.949098 -0.494568 0.511088
0.535829 -0.0291716 0.440605
0.541565 -0.516452 0.95181
0.999438 0.519777 0.558194
0.502618 1.02922 0.548032
0.0377584 0.470062 0.458741
0.483008 0.55675 1.0057
-0.536616 0.965409 0.438091
-0.999406 0.555396 0.524959
-0.52742 0.537122 0.939551
0.447524 -0.560009 -0.438292
0.528705 0.508856 -0.517967
-0.503131 0.481921 -0.521741
-0.464476 -0.465918 0.489062
0.524133 -0.499368 0.439442
0.461899 0.475273 0.483228
-0.489497 0.488873 0.514952
CELLS 7 196
27 0 1 4 3 9 10 13 12 26 27 28 29 30 31 32 33 34 35 36 37 81 79 78 80 77 82 110
27 3 4 7 6 12 13 16 15 28 38 39 40 32 41 42 43 37 36 44 45 86 84 80 85 83 87 111
27 2 3 6 5 11 12 15 14 46 40 47 48 49 43 50 51 52 37 45 53 91 86 89 90 88 92 112
27 8 9 12 11 17 18 21 20 54 33 49 55 56 57 58 59 60 61 62 63 97 95 94 96 93 98 113
27 9 10 13 12 18 19 22 21 30 31 32 33 64 65 66 57 61 67 68 62 95 100 99 101 82 102 114
27 12 13 16 15 21 22 25 24 32 41 42 43 66 69 70 71 62 68 72 73 105 103 101 104 87 106 115
27 11 12 15 14 20 21 24 23 49 43 50 51 58 71 74 75 63 62 73 76 108 105 96 107 92 109 116
CELL_TYPES 7
29
29
29
29
29
29
29
CELL_DATA 7
SCALARS material int
LOOKUP_TABLE default
1
1
1
1
1
1
1
