# vtk DataFile Version 3.0
Generated by MFEM
ASCII
DATASET UNSTRUCTURED_GRID
POINTS 101 double
-0.0245438 0.0302653 0
1 0 0
0.309017 0.951057 0
1.30902 0.951057 0
-0.809017 0.587785 0
-0.5 1.53884 0
-0.809017 -0.587785 0
-1.61803 0 0
0.309017 -0.951057 0
-0.5 -1.53884 0
1.30902 -0.951057 0
0.530062 0.00119899 0
1.15451 0.475529 0
0.809019 0.951057 0
0.162852 0.471924 0
-0.0954915 1.24495 0
-0.654508 1.06331 0
-0.392502 0.289555 0
-1.21352 0.293893 0
-1.21352 -0.293892 0
-0.382536 -0.267306 0
-0.654508 -1.06331 0
-0.0954915 -1.24495 0
0.17213 -0.474741 0
0.809019 -0.951057 0
1.15451 -0.475529 0
0.674866 0.482068 0
-0.252108 0.795075 0
-0.811904 -0.0034822 0
-0.255765 -0.743674 0
0.626374 -0.480148 0
0.253043 -0.00369251 0
0.555063 0.240863 0
0.389229 0.468354 0
0.0741029 0.233316 0
-0.0343828 0.614526 0
-0.34493 0.556722 0
-0.189873 0.125421 0
-0.584229 0.125286 0
-0.630465 -0.125257 0
-0.227089 -0.17516 0
-0.333183 -0.53859 0
-0.0718634 -0.630061 0
0.100232 -0.244076 0
0.38111 -0.445676 0
0.591956 -0.21848 0
0.766212 -0.011418 0
1.07726 0.237764 0
0.900741 0.459999 0
1.23176 0.713293 0
1.05902 0.951057 0
0.719492 0.693875 0
0.559018 0.951057 0
0.222384 0.743574 0
0.106763 1.098 0
-0.1537 0.999738 0
-0.297746 1.39189 0
-0.577254 1.30107 0
-0.465791 0.904096 0
-0.731762 0.825547 0
-0.617295 0.424018 0
-1.01127 0.440839 0
-1.03752 0.129401 0
-1.41578 0.146947 0
-1.41578 -0.146946 0
-1.01019 -0.138465 0
-1.01127 -0.440839 0
-0.589963 -0.470312 0
-0.731762 -0.825547 0
-0.479558 -0.929222 0
-0.577254 -1.30107 0
-0.297746 -1.39189 0
-0.175503 -0.996501 0
0.106763 -1.098 0
0.212886 -0.730387 0
0.559018 -0.951057 0
0.74592 -0.739855 0
1.05902 -0.951057 0
1.23176 -0.713293 0
0.884421 -0.487144 0
1.07726 -0.237764 0
0.331829 0.233544 0
-0.126884 0.384153 0
-0.412924 -0.0214581 0
-0.0993283 -0.389126 0
0.33072 -0.256952 0
0.807409 0.239334 0
1.01151 0.728982 0
0.480461 0.71249 0
0.026601 0.880016 0
-0.37455 1.15597 0
-0.510868 0.691453 0
-0.792644 0.29678 0
-1.20885 0.014766 0
-0.823099 -0.294765 0
-0.539613 -0.669302 0
-0.399725 -1.16136 0
0.026539 -0.852308 0
0.457982 -0.702991 0
0.970496 -0.733566 0
0.827457 -0.212215 0
CELLS 20 200
9 0 11 26 14 31 32 33 34 81
9 0 14 27 17 34 35 36 37 82
9 0 17 28 20 37 38 39 40 83
9 0 20 29 23 40 41 42 43 84
9 0 23 30 11 43 44 45 31 85
9 11 1 12 26 46 47 48 32 86
9 26 12 3 13 48 49 50 51 87
9 14 26 13 2 33 51 52 53 88
9 14 2 15 27 53 54 55 35 89
9 27 15 5 16 55 56 57 58 90
9 17 27 16 4 36 58 59 60 91
9 17 4 18 28 60 61 62 38 92
9 28 18 7 19 62 63 64 65 93
9 20 28 19 6 39 65 66 67 94
9 20 6 21 29 67 68 69 41 95
9 29 21 9 22 69 70 71 72 96
9 23 29 22 8 42 72 73 74 97
9 23 8 24 30 74 75 76 44 98
9 30 24 10 25 76 77 78 79 99
9 11 30 25 1 45 79 80 46 100
CELL_TYPES 20
28
28
28
28
28
28
28
28
28
28
28
28
28
28
28
28
28
28
28
28
CELL_DATA 20
SCALARS material int
LOOKUP_TABLE default
1
1
1
1
1
1
1
1
1
1
1
1
1
1
1
1
1
1
1
1
